LAMMPS (12 Jun 2025)
OMP_NUM_THREADS environment is not set. Defaulting to 1 thread. (src/comm.cpp:99)
  using 1 OpenMP thread(s) per MPI task
Loaded 1 plugins from C:\Users\maany\AppData\Local\LAMMPS 64-bit 12Jun2025\plugins
fix mycv all colvars outputs/colvars.conf
ERROR: Fix colvars command before simulation box is defined (src/modify.cpp:840)
Last input line: fix mycv all colvars outputs/colvars.conf 
                              ^^^^^^^
